! TOUCHSTONE file generated by CST MICROWAVE STUDIO
! Date and time: Tue Feb 11 22:25:56 2025
! Project name: CSRR_V0p1.cst
! Parameters = {k=5; W0=1.5; h=1.6; W=22; t=0.035}
! Header version: 2018
! Port assignment regex: !\s*Touchstone port\s*([0-9]+)\s*=\s*(CST MWS port|CST DS port)\s*([0-9]+|Zmin|Zmax)\s*\(\"(.*)\"\)(\s*mode\s*([0-9]+))?.*
! Touchstone port assignment:
! Touchstone port 1 = CST MWS port 1 ("Port1")
! Touchstone port 2 = CST MWS port 2 ("Port2")
# GHz S MA R 50
1                     0.30014496     -52.6029491      0.913260735     -143.855176       0.91326015      -143.85514      0.300179945     -52.6823722
1.001                0.299596582     -52.7369833      0.913385116     -144.001348      0.913384548     -144.001313      0.299631409     -52.8167928
1.002                0.299046656     -52.8710201      0.913509579     -144.147569      0.913509027     -144.147535      0.299081321     -52.9512183
1.003                0.298495182     -53.0050591      0.913634122     -144.293839      0.913633585     -144.293805      0.298529686     -53.0856482
1.004                0.297942165     -53.1390997      0.913758739     -144.440158      0.913758219     -144.440125      0.297976504      -53.220082
1.005                0.297387606     -53.2731412      0.913883429     -144.586527      0.913882923     -144.586494      0.297421779      -53.354519
1.006                0.296831508     -53.4071832      0.914008187     -144.732944      0.914007696     -144.732913      0.296865514     -53.4889587
1.007                0.296273873     -53.5412251      0.914133009     -144.879411      0.914132533      -144.87938      0.296307711     -53.6234005
1.008                0.295714706     -53.6752661      0.914257893     -145.025927      0.914257431     -145.025897      0.295748373      -53.757844
1.009                0.295154008     -53.8093059      0.914382833     -145.172492      0.914382385     -145.172463      0.295187503     -53.8922884
1.01                 0.294591782     -53.9433437      0.914507828     -145.319107      0.914507394     -145.319078      0.294625103     -54.0267333
1.011                0.294028031     -54.0773791      0.914632872     -145.465771      0.914632452     -145.465742      0.294061176     -54.1611781
1.012                0.293462757     -54.2114112      0.914757963     -145.612484      0.914757556     -145.612456      0.293495726     -54.2956221
1.013                0.292895964     -54.3454397      0.914883097     -145.759246      0.914882703     -145.759219      0.292928754     -54.4300648
1.014                0.292327655     -54.4794637       0.91500827     -145.906058      0.915007889     -145.906031      0.292360264     -54.5645055
1.015                0.291757832     -54.6134828      0.915133479     -146.052919       0.91513311     -146.052893      0.291790259     -54.6989437
1.016                0.291186499     -54.7474963      0.915258719      -146.19983      0.915258363     -146.199804      0.291218742     -54.8333788
1.017                0.290613658     -54.8815035      0.915383988      -146.34679      0.915383644     -146.346765      0.290645715     -54.9678101
1.018                0.290039312     -55.0155039      0.915509282     -146.493799       0.91550895     -146.493775      0.290071182     -55.1022371
1.019                0.289463465     -55.1494967      0.915634597     -146.640858      0.915634277     -146.640834      0.289495145      -55.236659
1.02                 0.288886119     -55.2834813      0.915759929     -146.787967       0.91575962     -146.787943      0.288917608     -55.3710753
1.021                0.288307278     -55.4174571      0.915885275     -146.935124      0.915884977     -146.935101      0.288338573     -55.5054853
1.022                0.287726944     -55.5514234      0.916010631     -147.082332      0.916010344     -147.082309      0.287758044     -55.6398885
1.023                 0.28714512     -55.6853795      0.916135993     -147.229588      0.916135718     -147.229566      0.287176024      -55.774284
1.024                0.286561811     -55.8193247      0.916261358     -147.376894      0.916261093     -147.376873      0.286592516     -55.9086714
1.025                0.285977019     -55.9532584      0.916386723      -147.52425      0.916386468     -147.524229      0.286007524     -56.0430498
1.026                0.285390746     -56.0871799      0.916512082     -147.671655      0.916511838     -147.671635      0.285421049     -56.1774187
1.027                0.284802997     -56.2210885      0.916637434      -147.81911        0.9166372      -147.81909      0.284833096     -56.3117774
1.028                0.284213775     -56.3549834      0.916762774     -147.966614      0.916762549     -147.966594      0.284243668     -56.4461252
1.029                0.283623083     -56.4888641      0.916888098     -148.114167      0.916887883     -148.114149      0.283652767     -56.5804614
1.03                 0.283030924     -56.6227296      0.917013403      -148.26177      0.917013197     -148.261752      0.283060398     -56.7147854
1.031                0.282437302     -56.7565795      0.917138685     -148.409423      0.917138488     -148.409405      0.282466564     -56.8490963
1.032                 0.28184222     -56.8904128       0.91726394     -148.557125      0.917263753     -148.557107      0.281871268     -56.9833936
1.033                 0.28124568     -57.0242289      0.917389166     -148.704876      0.917388987     -148.704859      0.281274513     -57.1176765
1.034                0.280647688     -57.1580271      0.917514357     -148.852677      0.917514187     -148.852661      0.280676302     -57.2519443
1.035                0.280048246     -57.2918065      0.917639511     -149.000528       0.91763935     -149.000512       0.28007664     -57.3861962
1.036                0.279447357     -57.4255665      0.917764624     -149.148427      0.917764471     -149.148412      0.279475529     -57.5204316
1.037                0.278845026     -57.5593063      0.917889692     -149.296377      0.917889546     -149.296361      0.278872974     -57.6546497
1.038                0.278241255      -57.693025      0.918014711     -149.444375      0.918014574      -149.44436      0.278268977     -57.7888497
1.039                0.277636049      -57.826722      0.918139678     -149.592423      0.918139548     -149.592409      0.277663542     -57.9230309
1.04                  0.27702941     -57.9603964      0.918264589     -149.740521      0.918264467     -149.740507      0.277056673     -58.0571926
1.041                0.276421342     -58.0940475      0.918389441     -149.888667      0.918389326     -149.888654      0.276448372     -58.1913339
1.042                 0.27581185     -58.2276744      0.918514229     -150.036863      0.918514121      -150.03685      0.275838645     -58.3254541
1.043                0.275200935     -58.3612764      0.918638951     -150.185109       0.91863885     -150.185096      0.275227494     -58.4595525
1.044                0.274588604     -58.4948526      0.918763602     -150.333404      0.918763507     -150.333391      0.274614924     -58.5936282
1.045                0.273974858     -58.6284022      0.918888178     -150.481748      0.918888091     -150.481736      0.274000936     -58.7276804
1.046                0.273359702     -58.7619243      0.919012677     -150.630141      0.919012596     -150.630129      0.273385537     -58.8617083
1.047                0.272743139     -58.8954183      0.919137094     -150.778583      0.919137019     -150.778572      0.272768729     -58.9957112
1.048                0.272125173     -59.0288831      0.919261426     -150.927075      0.919261357     -150.927064      0.272150515     -59.1296881
1.049                0.271505809      -59.162318      0.919385668     -151.075616      0.919385606     -151.075606        0.2715309     -59.2636384
1.05                 0.270885049      -59.295722      0.919509819     -151.224206      0.919509762     -151.224196      0.270909888      -59.397561
1.051                0.270262898     -59.4290944      0.919633873     -151.372845      0.919633822     -151.372836      0.270287483     -59.5314553
1.052                0.269639359     -59.5624342      0.919757827     -151.521533      0.919757781     -151.521524      0.269663687     -59.6653203
1.053                0.269014437     -59.6957405      0.919881677     -151.670271      0.919881637     -151.670262      0.269038506     -59.7991552
1.054                0.268388136     -59.8290125      0.920005421     -151.819057      0.920005385     -151.819048      0.268411942     -59.9329591
1.055                0.267760458     -59.9622492      0.920129053     -151.967892      0.920129023     -151.967884      0.267784001     -60.0667311
1.056                0.267131409     -60.0954497      0.920252571     -152.116777      0.920252546     -152.116769      0.267154686     -60.2004704
1.057                0.266500993     -60.2286132       0.92037597      -152.26571       0.92037595     -152.265702         0.266524     -60.3341761
1.058                0.265869212     -60.3617386      0.920499248     -152.414692      0.920499233     -152.414684      0.265891949     -60.4678472
1.059                0.265236073      -60.494825      0.920622401     -152.563723       0.92062239     -152.563716      0.265258535     -60.6014828
1.06                 0.264601577     -60.6278715      0.920745424     -152.712802      0.920745417     -152.712796      0.264623764     -60.7350821
1.061                0.263965731     -60.7608772      0.920868314     -152.861931      0.920868312     -152.861924      0.263987638     -60.8686441
1.062                0.263328537      -60.893841      0.920991068     -153.011108       0.92099107     -153.011102      0.263350163     -61.0021678
1.063                    0.26269     -61.0267619      0.921113682     -153.160334      0.921113688     -153.160328      0.262711343     -61.1356524
1.064                0.262050124      -61.159639      0.921236153     -153.309608      0.921236162     -153.309602      0.262071181     -61.2690967
1.065                0.261408914     -61.2924713      0.921358476     -153.458931      0.921358489     -153.458926      0.261429682        -61.4025
1.066                0.260766373     -61.4252578      0.921480648     -153.608302      0.921480665     -153.608297       0.26078685     -61.5358612
1.067                0.260122506     -61.5579974      0.921602666     -153.757722      0.921602686     -153.757717      0.260142689     -61.6691792
1.068                0.259477317     -61.6906892      0.921724525      -153.90719      0.921724549     -153.907186      0.259497204     -61.8024532
1.069                0.258830811      -61.823332      0.921846223     -154.056707       0.92184625     -154.056703      0.258850398     -61.9356821
1.07                 0.258182992     -61.9559248      0.921967755     -154.206272      0.921967785     -154.206268      0.258202277     -62.0688649
1.071                0.257533864     -62.0884666      0.922089119     -154.355885      0.922089152     -154.355881      0.257552845     -62.2020006
1.072                0.256883431     -62.2209563       0.92221031     -154.505546      0.922210346     -154.505543      0.256902105     -62.3350881
1.073                0.256231699     -62.3533928      0.922331324     -154.655256      0.922331363     -154.655253      0.256250063     -62.4681263
1.074                0.255578671      -62.485775      0.922452159     -154.805013      0.922452201      -154.80501      0.255596722     -62.6011143
1.075                0.254924352     -62.6181018      0.922572811     -154.954819      0.922572855     -154.954816      0.254942088     -62.7340509
1.076                0.254268746      -62.750372      0.922693276     -155.104672      0.922693322      -155.10467      0.254286164     -62.8669351
1.077                0.253611859     -62.8825846       0.92281355     -155.254574      0.922813599     -155.254572      0.253628956     -62.9997657
1.078                0.252953694     -63.0147384      0.922933631     -155.404523      0.922933682     -155.404521      0.252970467     -63.1325417
1.079                0.252294256     -63.1468323      0.923053513      -155.55452      0.923053566     -155.554518      0.252310703     -63.2652619
1.08                  0.25163355      -63.278865      0.923173195     -155.704565       0.92317325     -155.704563      0.251649667     -63.3979253
1.081                0.250971581     -63.4108355      0.923292672     -155.854657      0.923292729     -155.854655      0.250987365     -63.5305306
1.082                0.250308352     -63.5427424      0.923411941     -156.004796      0.923411999     -156.004795      0.250323801     -63.6630767
1.083                 0.24964387     -63.6745847      0.923530997     -156.154984      0.923531058     -156.154983       0.24965898     -63.7955625
1.084                0.248978137      -63.806361      0.923649839     -156.305218      0.923649901     -156.305217      0.248992907     -63.9279867
1.085                 0.24831116     -63.9380702      0.923768462       -156.4555      0.923768526       -156.4555      0.248325586     -64.0603482
1.086                0.247642943      -64.069711      0.923886862     -156.605829      0.923886927     -156.605829      0.247657021     -64.1926458
1.087                0.246973491     -64.2012821      0.924005037     -156.756206      0.924005103     -156.756205      0.246987219     -64.3248783
1.088                0.246302808     -64.3327823      0.924122982     -156.906629       0.92412305     -156.906629      0.246316183     -64.4570443
1.089                  0.2456309     -64.4642103      0.924240694       -157.0571      0.924240763       -157.0571      0.245643918     -64.5891428
1.09                 0.244957771     -64.5955648       0.92435817     -157.207617       0.92435824     -157.207617       0.24497043     -64.7211723
1.091                0.244283426     -64.7268445      0.924475406     -157.358181      0.924475477     -157.358182      0.244295722     -64.8531318
1.092                 0.24360787      -64.858048      0.924592399     -157.508792      0.924592471     -157.508793        0.2436198     -64.9850198
1.093                0.242931109      -64.989174      0.924709145      -157.65945      0.924709218     -157.659451       0.24294267      -65.116835
1.094                0.242253146     -65.1202211       0.92482564     -157.810155      0.924825714     -157.810155      0.242264335     -65.2485762
1.095                0.241573987      -65.251188      0.924941882     -157.960905      0.924941957     -157.960906      0.241584801      -65.380242
1.096                0.240893638     -65.3820733      0.925057867     -158.111703      0.925057942     -158.111704      0.240904072     -65.5118311
1.097                0.240212102     -65.5128755      0.925173591     -158.262546      0.925173667     -158.262547      0.240222155     -65.6433421
1.098                0.239529386     -65.6435933      0.925289051     -158.413436      0.925289128     -158.413437      0.239539053     -65.7747737
1.099                0.238845493     -65.7742252      0.925404244     -158.564372      0.925404321     -158.564374      0.238854772     -65.9061244
1.1                  0.238160431     -65.9047697      0.925519166     -158.715354      0.925519243     -158.715356      0.238169317     -66.0373928
1.101                0.237474202     -66.0352254      0.925633814     -158.866383      0.925633891     -158.866384      0.237482694     -66.1685775
1.102                0.236786814     -66.1655908      0.925748183     -159.017457      0.925748261     -159.017458      0.236794906     -66.2996772
1.103                 0.23609827     -66.2958644      0.925862272     -159.168576       0.92586235     -159.168578       0.23610596     -66.4306902
1.104                0.235408576     -66.4260446      0.925976077     -159.319742      0.925976154     -159.319744      0.235415861     -66.5616152
1.105                0.234717738       -66.55613      0.926089593     -159.470953      0.926089671     -159.470955      0.234724613     -66.6924507
1.106                 0.23402576     -66.6861189      0.926202819     -159.622209      0.926202896     -159.622212      0.234032223     -66.8231951
1.107                0.233332649     -66.8160098      0.926315749     -159.773512      0.926315827     -159.773514      0.233338695     -66.9538469
1.108                0.232638409      -66.945801      0.926428382     -159.924859       0.92642846     -159.924861      0.232644034     -67.0844047
1.109                0.231943045     -67.0754911      0.926540714     -160.076251      0.926540791     -160.076254      0.231948247     -67.2148667
1.11                 0.231246563     -67.2050782      0.926652741     -160.227689      0.926652818     -160.227691      0.231251338     -67.3452315
1.111                0.230548969     -67.3345609      0.926764461     -160.379171      0.926764537     -160.379174      0.230553313     -67.4754974
1.112                0.229850267     -67.4639373      0.926875869     -160.530699      0.926875945     -160.530702      0.229854177     -67.6056628
1.113                0.229150464     -67.5932059      0.926986963     -160.682271      0.926987038     -160.682274      0.229153935     -67.7357262
1.114                0.228449565     -67.7223648      0.927097739     -160.833888      0.927097814     -160.833891      0.228452594     -67.8656857
1.115                0.227747575     -67.8514124      0.927208194      -160.98555      0.927208268     -160.985552      0.227750158     -67.9955398
1.116                  0.2270445     -67.9803469      0.927318325     -161.137256      0.927318399     -161.137259      0.227046633     -68.1252868
1.117                0.226340345     -68.1091665      0.927428128     -161.289006      0.927428201     -161.289009      0.226342024     -68.2549248
1.118                0.225635116     -68.2378694        0.9275376       -161.4408      0.927537673     -161.440803      0.225636338     -68.3844523
1.119                0.224928819     -68.3664538      0.927646739     -161.592639      0.927646811     -161.592642      0.224929579     -68.5138674
1.12                 0.224221459     -68.4949179       0.92775554     -161.744522      0.927755611     -161.744525      0.224221753     -68.6431683
1.121                0.223513041     -68.6232597      0.927864001     -161.896448      0.927864071     -161.896451      0.223512866     -68.7723533
1.122                0.222803573     -68.7514774      0.927972118     -162.048419      0.927972187     -162.048422      0.222802924     -68.9014204
1.123                0.222093058     -68.8795691      0.928079888     -162.200433      0.928079957     -162.200436      0.222091932      -69.030368
1.124                0.221381504     -69.0075328      0.928187308      -162.35249      0.928187376     -162.352493      0.221379896      -69.159194
1.125                0.220668915     -69.1353666      0.928294376     -162.504591      0.928294442     -162.504594      0.220666821     -69.2878966
1.126                0.219955298     -69.2630684      0.928401086     -162.656735      0.928401152     -162.656739      0.219952714     -69.4164738
1.127                0.219240658     -69.3906363      0.928507438     -162.808923      0.928507502     -162.808926       0.21923758     -69.5449238
1.128                0.218525002     -69.5180682      0.928613427     -162.961153       0.92861349     -162.961157      0.218521425     -69.6732444
1.129                0.217808334     -69.6453621       0.92871905     -163.113427      0.928719112      -163.11343      0.217804255     -69.8014338
1.13                 0.217090662     -69.7725157      0.928824304     -163.265743      0.928824365     -163.265746      0.217086075       -69.92949
1.131                 0.21637199     -69.8995271      0.928929186     -163.418102      0.928929246     -163.418105      0.216366892     -70.0574108
1.132                0.215652325     -70.0263941      0.929033693     -163.570503      0.929033752     -163.570507      0.215646711     -70.1851941
1.133                0.214931673     -70.1531145      0.929137823     -163.722947       0.92913788     -163.722951      0.214925538      -70.312838
1.134                 0.21421004      -70.279686      0.929241571     -163.875434      0.929241627     -163.875437       0.21420338     -70.4403401
1.135                0.213487431     -70.4061065      0.929344935     -164.027962      0.929344989     -164.027965      0.213480242     -70.5676985
1.136                0.212763853     -70.5323737      0.929447911     -164.180532      0.929447965     -164.180536      0.212756131     -70.6949109
1.137                0.212039313     -70.6584852      0.929550498     -164.333145       0.92955055     -164.333148      0.212031051      -70.821975
1.138                0.211313815     -70.7844388      0.929652691     -164.485799      0.929652741     -164.485802       0.21130501     -70.9488886
1.139                0.210587366     -70.9102321      0.929754488     -164.638495      0.929754537     -164.638498      0.210578013     -71.0756495
1.14                 0.209859972     -71.0358627      0.929855886     -164.791232      0.929855933     -164.791235      0.209850067     -71.2022553
1.141                 0.20913164     -71.1613282      0.929956882     -164.944011      0.929956928     -164.944014      0.209121178     -71.3287037
1.142                0.208402376     -71.2866261      0.930057472     -165.096831      0.930057517     -165.096834      0.208391351     -71.4549923
1.143                0.207672185     -71.4117538      0.930157654     -165.249692      0.930157697     -165.249695      0.207660593     -71.5811187
1.144                0.206941075      -71.536709      0.930257426     -165.402594      0.930257467     -165.402597      0.206928911     -71.7070805
1.145                 0.20620905     -71.6614891      0.930356783     -165.555536      0.930356823      -165.55554       0.20619631     -71.8328752
1.146                0.205476119     -71.7860913      0.930455724      -165.70852      0.930455762     -165.708523      0.205462796     -71.9585002
1.147                0.204742286     -71.9105132      0.930554245     -165.861544      0.930554282     -165.861547      0.204728377     -72.0839531
1.148                0.204007559     -72.0347519      0.930652344     -166.014608      0.930652379     -166.014611      0.203993057     -72.2092313
1.149                0.203271943      -72.158805      0.930750017     -166.167713       0.93075005     -166.167716      0.203256845     -72.3343321
1.15                 0.202535446     -72.2826694      0.930847262     -166.320858      0.930847293     -166.320861      0.202519745     -72.4592528
1.151                0.201798073     -72.4063426      0.930944075     -166.474043      0.930944105     -166.474046      0.201781764     -72.5839909
1.152                0.201059831     -72.5298216      0.931040455     -166.627267      0.931040483      -166.62727       0.20104291     -72.7085435
1.153                0.200320727     -72.6531036      0.931136398     -166.780532      0.931136425     -166.780535      0.200303187     -72.8329079
1.154                0.199580766     -72.7761857      0.931231902     -166.933835      0.931231927     -166.933838      0.199562603     -72.9570813
1.155                0.198839956     -72.8990649      0.931326963     -167.087179      0.931326986     -167.087182      0.198821164     -73.0810609
1.156                0.198098304     -73.0217383       0.93142158     -167.240561      0.931421601     -167.240564      0.198078877     -73.2048437
1.157                0.197355814     -73.1442028      0.931515748     -167.393983      0.931515768     -167.393985      0.197335748     -73.3284267
1.158                0.196612496     -73.2664552      0.931609467     -167.547443      0.931609484     -167.547446      0.196591784     -73.4518072
1.159                0.195868354     -73.3884926      0.931702731     -167.700942      0.931702747     -167.700945      0.195846991     -73.5749819
1.16                 0.195123395     -73.5103116      0.931795541      -167.85448      0.931795555     -167.854483      0.195101375     -73.6979478
1.161                0.194377628     -73.6319092      0.931887891     -168.008057      0.931887903     -168.008059      0.194354945     -73.8207019
1.162                0.193631057     -73.7532819       0.93197978     -168.161672      0.931979791     -168.161674      0.193607705      -73.943241
1.163                0.192883689     -73.8744265      0.932071206     -168.315324      0.932071215     -168.315327      0.192859664     -74.0655618
1.164                0.192135533     -73.9953397      0.932162165     -168.469015      0.932162172     -168.469018      0.192110827     -74.1876611
1.165                0.191386594     -74.1160179      0.932252655     -168.622744       0.93225266     -168.622747      0.191361202     -74.3095355
1.166                0.190636879     -74.2364578      0.932342673     -168.776511      0.932342676     -168.776513      0.190610794     -74.4311819
1.167                0.189886395     -74.3566557      0.932432216     -168.930315      0.932432218     -168.930317      0.189859612     -74.5525966
1.168                0.189135149     -74.4766082      0.932521283     -169.084156      0.932521283     -169.084158      0.189107662     -74.6737764
1.169                0.188383147     -74.5963115      0.932609871     -169.238035      0.932609869     -169.238037       0.18835495     -74.7947175
1.17                 0.187630398      -74.715762      0.932697976      -169.39195      0.932697972     -169.391953      0.187601483     -74.9154166
1.171                0.186876908     -74.8349559      0.932785597     -169.545903      0.932785591     -169.545905      0.186847269     -75.0358699
1.172                0.186122683     -74.9538894      0.932872731     -169.699892      0.932872724     -169.699894      0.186092315     -75.1560738
1.173                0.185367731     -75.0725586      0.932959376     -169.853918      0.932959366      -169.85392      0.185336627     -75.2760245
1.174                0.184612059     -75.1909596      0.933045528     -170.007981      0.933045517     -170.007983      0.184580212     -75.3957182
1.175                0.183855674     -75.3090884      0.933131187     -170.162079      0.933131173     -170.162081      0.183823077     -75.5151511
1.176                0.183098583     -75.4269409      0.933216348     -170.316214      0.933216333     -170.316216       0.18306523     -75.6343193
1.177                0.182340793      -75.544513       0.93330101     -170.470385      0.933300993     -170.470386      0.182306677     -75.7532187
1.178                0.181582311     -75.6618005       0.93338517     -170.624591      0.933385152     -170.624593      0.181547426     -75.8718453
1.179                0.180823146     -75.7787992      0.933468827     -170.778833      0.933468806     -170.778835      0.180787484      -75.990195
1.18                 0.180063303     -75.8955046      0.933551977     -170.933111      0.933551954     -170.933112      0.180026857     -76.1082635
1.181                 0.17930279     -76.0119125      0.933634618     -171.087423      0.933634594     -171.087425      0.179265553     -76.2260467
1.182                0.178541614     -76.1280182      0.933716748     -171.241771      0.933716722     -171.241772       0.17850358     -76.3435402
1.183                0.177779783     -76.2438173      0.933798365     -171.396154      0.933798337     -171.396155      0.177740944     -76.4607396
1.184                0.177017305     -76.3593052      0.933879466     -171.550571      0.933879436     -171.550572      0.176977654     -76.5776405
1.185                0.176254186      -76.474477      0.933960048     -171.705023      0.933960017     -171.705024      0.176213715     -76.6942383
1.186                0.175490433     -76.5893281      0.934040111      -171.85951      0.934040078      -171.85951      0.175449135     -76.8105283
1.187                0.174726055     -76.7038536      0.934119651      -172.01403      0.934119616     -172.014031      0.174683923     -76.9265059
1.188                0.173961059     -76.8180484      0.934198667     -172.168585       0.93419863     -172.168586      0.173918084     -77.0421662
1.189                0.173195452     -76.9319077      0.934277155     -172.323174      0.934277116     -172.323174      0.173151628     -77.1575045
1.19                 0.172429242     -77.0454262      0.934355114     -172.477796      0.934355074     -172.477796       0.17238456     -77.2725158
1.191                0.171662437     -77.1585988      0.934432542     -172.632452        0.9344325     -172.632452      0.171616889      -77.387195
1.192                0.170895044     -77.2714201      0.934509436     -172.787141      0.934509392     -172.787141      0.170848622      -77.501537
1.193                 0.17012707     -77.3838847      0.934585795     -172.941863      0.934585749     -172.941863      0.170079767     -77.6155366
1.194                0.169358524     -77.4959872      0.934661616     -173.096619      0.934661569     -173.096619      0.169310331     -77.7291884
1.195                0.168589413      -77.607722      0.934736897     -173.251407      0.934736848     -173.251407      0.168540322     -77.8424872
1.196                0.167819744     -77.7190833      0.934811636     -173.406228      0.934811585     -173.406227      0.167769747     -77.9554274
1.197                0.167049527     -77.8300655      0.934885831     -173.561081      0.934885779     -173.561081      0.166998615     -78.0680034
1.198                0.166278768     -77.9406625       0.93495948     -173.715967      0.934959426     -173.715966      0.166226933     -78.1802095